<?xml version="1.0" encoding="UTF-8"?>

<!-- generated on 2023-10-17 17:01:36 by Eclipse SUMO GUI Version 1.18.0
<configuration xmlns:xsi="http://www.w3.org/2001/XMLSchema-instance" xsi:noNamespaceSchemaLocation="http://sumo.dlr.de/xsd/sumoConfiguration.xsd">

    <input>
        <net-file value="network.net.xml"/>
        <route-files value="routes.rou.xml"/>
    </input>

    <output>
        <tripinfo-output value="tripinfo.xml"/>
    </output>

    <time>
        <begin value="0"/>
        <end value="200"/>
    </time>

    <report>
        <verbose value="true"/>
        <no-step-log value="true"/>
    </report>

    <traci_server>
        <remote-port value="52868"/>
    </traci_server>

</configuration>
-->

<tripinfos xmlns:xsi="http://www.w3.org/2001/XMLSchema-instance" xsi:noNamespaceSchemaLocation="http://sumo.dlr.de/xsd/tripinfo_file.xsd">
    <tripinfo id="1" depart="1.00" departLane="E1_0" departPos="5.10" departSpeed="0.00" departDelay="0.00" arrival="38.00" arrivalLane="-E0_0" arrivalPos="192.80" arrivalSpeed="12.18" duration="37.00" routeLength="389.53" waitingTime="0.00" waitingCount="0" stopTime="0.00" timeLoss="5.91" rerouteNo="0" devices="tripinfo_1" vType="DEFAULT_VEHTYPE" speedFactor="0.94" vaporized=""/>
    <tripinfo id="4" depart="4.00" departLane="E1_0" departPos="5.10" departSpeed="0.00" departDelay="0.00" arrival="39.00" arrivalLane="-E0_0" arrivalPos="192.80" arrivalSpeed="15.04" duration="35.00" routeLength="389.53" waitingTime="0.00" waitingCount="0" stopTime="0.00" timeLoss="8.41" rerouteNo="0" devices="tripinfo_4" vType="DEFAULT_VEHTYPE" speedFactor="1.08" vaporized=""/>
    <tripinfo id="11" depart="11.00" departLane="E1_0" departPos="5.10" departSpeed="0.00" departDelay="0.00" arrival="48.00" arrivalLane="-E0_0" arrivalPos="192.80" arrivalSpeed="12.72" duration="37.00" routeLength="389.53" waitingTime="0.00" waitingCount="0" stopTime="0.00" timeLoss="5.85" rerouteNo="0" devices="tripinfo_11" vType="DEFAULT_VEHTYPE" speedFactor="0.94" vaporized=""/>
    <tripinfo id="5" depart="5.00" departLane="E0_0" departPos="5.10" departSpeed="0.00" departDelay="0.00" arrival="51.00" arrivalLane="-E2_0" arrivalPos="192.80" arrivalSpeed="13.94" duration="46.00" routeLength="394.90" waitingTime="8.00" waitingCount="1" stopTime="0.00" timeLoss="17.85" rerouteNo="0" devices="tripinfo_5" vType="DEFAULT_VEHTYPE" speedFactor="1.03" vaporized=""/>
    <tripinfo id="8" depart="8.00" departLane="E0_0" departPos="5.10" departSpeed="0.00" departDelay="0.00" arrival="56.00" arrivalLane="-E2_0" arrivalPos="192.80" arrivalSpeed="10.89" duration="48.00" routeLength="394.90" waitingTime="4.00" waitingCount="1" stopTime="0.00" timeLoss="13.35" rerouteNo="0" devices="tripinfo_8" vType="DEFAULT_VEHTYPE" speedFactor="0.83" vaporized=""/>
    <tripinfo id="21" depart="21.00" departLane="E0_0" departPos="5.10" departSpeed="0.00" departDelay="0.00" arrival="58.00" arrivalLane="-E1_0" arrivalPos="192.80" arrivalSpeed="12.11" duration="37.00" routeLength="394.70" waitingTime="0.00" waitingCount="0" stopTime="0.00" timeLoss="5.71" rerouteNo="0" devices="tripinfo_21" vType="DEFAULT_VEHTYPE" speedFactor="0.94" vaporized=""/>
    <tripinfo id="23" depart="24.00" departLane="E0_0" departPos="5.10" departSpeed="0.00" departDelay="1.00" arrival="61.00" arrivalLane="-E1_0" arrivalPos="192.80" arrivalSpeed="11.89" duration="37.00" routeLength="394.70" waitingTime="0.00" waitingCount="0" stopTime="0.00" timeLoss="5.59" rerouteNo="0" devices="tripinfo_23" vType="DEFAULT_VEHTYPE" speedFactor="0.94" vaporized=""/>
    <tripinfo id="28" depart="28.00" departLane="E0_0" departPos="5.10" departSpeed="0.00" departDelay="0.00" arrival="63.00" arrivalLane="-E2_0" arrivalPos="192.80" arrivalSpeed="12.37" duration="35.00" routeLength="394.90" waitingTime="0.00" waitingCount="0" stopTime="0.00" timeLoss="5.06" rerouteNo="0" devices="tripinfo_28" vType="DEFAULT_VEHTYPE" speedFactor="0.97" vaporized=""/>
    <tripinfo id="29" depart="31.00" departLane="E0_0" departPos="5.10" departSpeed="0.00" departDelay="2.00" arrival="69.00" arrivalLane="-E1_0" arrivalPos="192.80" arrivalSpeed="11.54" duration="38.00" routeLength="394.70" waitingTime="0.00" waitingCount="0" stopTime="0.00" timeLoss="4.99" rerouteNo="0" devices="tripinfo_29" vType="DEFAULT_VEHTYPE" speedFactor="0.89" vaporized=""/>
    <tripinfo id="35" depart="35.00" departLane="E0_0" departPos="5.10" departSpeed="0.00" departDelay="0.00" arrival="75.00" arrivalLane="-E3_0" arrivalPos="192.80" arrivalSpeed="10.82" duration="40.00" routeLength="389.53" waitingTime="0.00" waitingCount="0" stopTime="0.00" timeLoss="6.24" rerouteNo="0" devices="tripinfo_35" vType="DEFAULT_VEHTYPE" speedFactor="0.87" vaporized=""/>
    <tripinfo id="45" depart="45.00" departLane="E0_0" departPos="5.10" departSpeed="0.00" departDelay="0.00" arrival="78.00" arrivalLane="-E2_0" arrivalPos="192.80" arrivalSpeed="13.07" duration="33.00" routeLength="394.90" waitingTime="0.00" waitingCount="0" stopTime="0.00" timeLoss="3.90" rerouteNo="0" devices="tripinfo_45" vType="DEFAULT_VEHTYPE" speedFactor="0.99" vaporized=""/>
    <tripinfo id="0" depart="0.00" departLane="E2_0" departPos="5.10" departSpeed="0.00" departDelay="0.00" arrival="82.00" arrivalLane="-E0_0" arrivalPos="192.80" arrivalSpeed="14.64" duration="82.00" routeLength="394.90" waitingTime="45.00" waitingCount="1" stopTime="0.00" timeLoss="55.02" rerouteNo="0" devices="tripinfo_0" vType="DEFAULT_VEHTYPE" speedFactor="1.06" vaporized=""/>
    <tripinfo id="16" depart="16.00" departLane="E2_0" departPos="5.10" departSpeed="0.00" departDelay="0.00" arrival="85.00" arrivalLane="-E3_0" arrivalPos="192.80" arrivalSpeed="13.45" duration="69.00" routeLength="394.70" waitingTime="31.00" waitingCount="1" stopTime="0.00" timeLoss="40.64" rerouteNo="0" devices="tripinfo_16" vType="DEFAULT_VEHTYPE" speedFactor="1.05" vaporized=""/>
    <tripinfo id="24" depart="24.00" departLane="E2_0" departPos="5.10" departSpeed="0.00" departDelay="0.00" arrival="88.00" arrivalLane="-E1_0" arrivalPos="192.80" arrivalSpeed="14.96" duration="64.00" routeLength="389.53" waitingTime="25.00" waitingCount="1" stopTime="0.00" timeLoss="38.66" rerouteNo="0" devices="tripinfo_24" vType="DEFAULT_VEHTYPE" speedFactor="1.16" vaporized=""/>
    <tripinfo id="20" depart="20.00" departLane="E2_0" departPos="5.10" departSpeed="0.00" departDelay="0.00" arrival="89.00" arrivalLane="-E0_0" arrivalPos="192.80" arrivalSpeed="11.38" duration="69.00" routeLength="394.90" waitingTime="26.00" waitingCount="1" stopTime="0.00" timeLoss="35.99" rerouteNo="0" devices="tripinfo_20" vType="DEFAULT_VEHTYPE" speedFactor="0.88" vaporized=""/>
    <tripinfo id="37" depart="37.00" departLane="E2_0" departPos="5.10" departSpeed="0.00" departDelay="0.00" arrival="93.00" arrivalLane="-E1_0" arrivalPos="192.80" arrivalSpeed="12.20" duration="56.00" routeLength="389.53" waitingTime="13.00" waitingCount="1" stopTime="0.00" timeLoss="25.18" rerouteNo="0" devices="tripinfo_37" vType="DEFAULT_VEHTYPE" speedFactor="0.95" vaporized=""/>
    <tripinfo id="40" depart="40.00" departLane="E2_0" departPos="5.10" departSpeed="0.00" departDelay="0.00" arrival="95.00" arrivalLane="-E1_0" arrivalPos="192.80" arrivalSpeed="15.67" duration="55.00" routeLength="389.53" waitingTime="12.00" waitingCount="1" stopTime="0.00" timeLoss="29.93" rerouteNo="0" devices="tripinfo_40" vType="DEFAULT_VEHTYPE" speedFactor="1.18" vaporized=""/>
    <tripinfo id="41" depart="43.00" departLane="E2_0" departPos="5.10" departSpeed="0.00" departDelay="2.00" arrival="95.00" arrivalLane="-E3_0" arrivalPos="192.80" arrivalSpeed="14.91" duration="52.00" routeLength="394.70" waitingTime="12.00" waitingCount="1" stopTime="0.00" timeLoss="26.51" rerouteNo="0" devices="tripinfo_41" vType="DEFAULT_VEHTYPE" speedFactor="1.15" vaporized=""/>
    <tripinfo id="17" depart="17.00" departLane="E1_0" departPos="5.10" departSpeed="0.00" departDelay="0.00" arrival="98.00" arrivalLane="-E2_0" arrivalPos="192.80" arrivalSpeed="14.43" duration="81.00" routeLength="394.70" waitingTime="43.00" waitingCount="1" stopTime="0.00" timeLoss="54.85" rerouteNo="0" devices="tripinfo_17" vType="DEFAULT_VEHTYPE" speedFactor="1.12" vaporized=""/>
    <tripinfo id="25" depart="25.00" departLane="E1_0" departPos="5.10" departSpeed="0.00" departDelay="0.00" arrival="102.00" arrivalLane="-E0_0" arrivalPos="192.80" arrivalSpeed="12.87" duration="77.00" routeLength="389.53" waitingTime="38.00" waitingCount="1" stopTime="0.00" timeLoss="48.11" rerouteNo="0" devices="tripinfo_25" vType="DEFAULT_VEHTYPE" speedFactor="1.02" vaporized=""/>
    <tripinfo id="26" depart="28.00" departLane="E1_0" departPos="5.10" departSpeed="0.00" departDelay="2.00" arrival="103.00" arrivalLane="-E3_0" arrivalPos="192.80" arrivalSpeed="13.72" duration="75.00" routeLength="394.90" waitingTime="35.00" waitingCount="1" stopTime="0.00" timeLoss="46.17" rerouteNo="0" devices="tripinfo_26" vType="DEFAULT_VEHTYPE" speedFactor="1.01" vaporized=""/>
</tripinfos>
